------------------------------------------------------------
          Invoking FHI-aims ...

          When using FHI-aims, please cite the following reference:

            Volker Blum, Ralf Gehrke, Felix Hanke, Paula Havu,
            Ville Havu, Xinguo Ren, Karsten Reuter, and Matthias Scheffler,
            'Ab Initio Molecular Simulations with Numeric Atom-Centered Orbitals',
            Computer Physics Communications 180, 2175-2196 (2009)

          In addition, many other developments in FHI-aims are likely important for
          your particular application. A partial list of references is given at the end of
          this file. Thank you for giving credit to the authors of these developments.

          For any questions about FHI-aims, please visit our slack channel at

            https://fhi-aims.slack.com

          and our main development and support site at

            https://aims-git.rz-berlin.mpg.de .

          The latter site, in particular, has a wiki to collect information, as well
          as an issue tracker to log discussions, suggest improvements, and report issues
          or bugs. https://aims-git.rz-berlin.mpg.de is also the main development site
          of the project and all new and updated code versions can be obtained there.
          Please send an email to aims-coordinators@fhi-berlin.mpg.de and we will add
          you to these sites. They are for you and everyone is welcome there.

------------------------------------------------------------



  Date     :  20230531, Time     :  231728.356
  Time zero on CPU 1             :   0.454302200000000E+01  s.
  Internal wall clock time zero  :           454807048.356  s.

  FHI-aims created a unique identifier for this run for later identification
  aims_uuid : D2756786-5FD5-4E89-ABE1-387E0FED4698

  Build configuration of the current instance of FHI-aims
  -------------------------------------------------------
  FHI-aims version      : 230314
  Commit number         : 517223f7b
  CMake host system     : Linux-5.14.21-150400.24.41-default
  CMake version         : 3.20.4
  Fortran compiler      : /mpcdf/soft/SLE_15/packages/x86_64/intel_oneapi/2022.2/mpi/2021.6.0/bin/mpiifort (Intel) version 2021.6.0.20220226
  Fortran compiler flags: -O3 -mtune=icelake-server -ip
  C compiler            : /mpcdf/soft/SLE_15/packages/x86_64/intel_oneapi/2022.2/mpi/2021.6.0/bin/mpiicc (Intel) version 2021.6.0.20220226
  C compiler flags      : -O3 -ip -march=icelake-server
  CUDA compiler         : /mpcdf/soft/SLE_15/packages/x86_64/cuda/11.4.2/bin/nvcc
  CUDA compiler flags   : -O3 -DAdd_ -arch=sm_80 -lcublas
  HIP compiler          :
  HIP compiler flags    :
  HIP GPU arch          :
  ELPA2 kernel          : AVX512
  Using MPI
  Using ScaLAPACK
  Using LibXC
  Using CUDA
  Using i-PI
  Using RLSY
  Linking against: /mpcdf/soft/SLE_15/packages/x86_64/intel_oneapi/2022.2/mkl/latest/lib/intel64/libmkl_intel_lp64.so
                   /mpcdf/soft/SLE_15/packages/x86_64/intel_oneapi/2022.2/mkl/latest/lib/intel64/libmkl_sequential.so
                   /mpcdf/soft/SLE_15/packages/x86_64/intel_oneapi/2022.2/mkl/latest/lib/intel64/libmkl_core.so
                   /mpcdf/soft/SLE_15/packages/x86_64/intel_oneapi/2022.2/mkl/latest/lib/intel64/libmkl_blacs_intelmpi_lp64.so
                   /mpcdf/soft/SLE_15/packages/x86_64/intel_oneapi/2022.2/mkl/latest/lib/intel64/libmkl_scalapack_lp64.so
                   /usr/lib64/libpthread.so
                   /usr/lib64/libm.so
                   /usr/lib64/libdl.so
                   /mpcdf/soft/SLE_15/packages/x86_64/cuda/11.4.2/lib64/libcublas.so
                   /mpcdf/soft/SLE_15/packages/x86_64/cuda/11.4.2/lib64/libcudart.so
                   /u/seko/software/elpa-new_release_2022.05.001/build_kernels/AVX512_gpu_Andi/lib/libelpa.so

  Using      144 parallel tasks.
  Task        0 on host ravc2226 reporting.
  Task        1 on host ravc2226 reporting.
  Task        2 on host ravc2226 reporting.
  Task        3 on host ravc2226 reporting.
  Task        4 on host ravc2226 reporting.
  Task        5 on host ravc2226 reporting.
  Task        6 on host ravc2226 reporting.
  Task        7 on host ravc2226 reporting.
  Task        8 on host ravc2226 reporting.
  Task        9 on host ravc2226 reporting.
  Task       10 on host ravc2226 reporting.
  Task       11 on host ravc2226 reporting.
  Task       12 on host ravc2226 reporting.
  Task       13 on host ravc2226 reporting.
  Task       14 on host ravc2226 reporting.
  Task       15 on host ravc2226 reporting.
  Task       16 on host ravc2226 reporting.
  Task       17 on host ravc2226 reporting.
  Task       18 on host ravc2226 reporting.
  Task       19 on host ravc2226 reporting.
  Task       20 on host ravc2226 reporting.
  Task       21 on host ravc2226 reporting.
  Task       22 on host ravc2226 reporting.
  Task       23 on host ravc2226 reporting.
  Task       24 on host ravc2226 reporting.
  Task       25 on host ravc2226 reporting.
  Task       26 on host ravc2226 reporting.
  Task       27 on host ravc2226 reporting.
  Task       28 on host ravc2226 reporting.
  Task       29 on host ravc2226 reporting.
  Task       30 on host ravc2226 reporting.
  Task       31 on host ravc2226 reporting.
  Task       32 on host ravc2226 reporting.
  Task       33 on host ravc2226 reporting.
  Task       34 on host ravc2226 reporting.
  Task       35 on host ravc2226 reporting.
  Task       36 on host ravc2226 reporting.
  Task       37 on host ravc2226 reporting.
  Task       38 on host ravc2226 reporting.
  Task       39 on host ravc2226 reporting.
  Task       40 on host ravc2226 reporting.
  Task       41 on host ravc2226 reporting.
  Task       42 on host ravc2226 reporting.
  Task       43 on host ravc2226 reporting.
  Task       44 on host ravc2226 reporting.
  Task       45 on host ravc2226 reporting.
  Task       46 on host ravc2226 reporting.
  Task       47 on host ravc2226 reporting.
  Task       48 on host ravc2226 reporting.
  Task       49 on host ravc2226 reporting.
  Task       50 on host ravc2226 reporting.
  Task       51 on host ravc2226 reporting.
  Task       52 on host ravc2226 reporting.
  Task       53 on host ravc2226 reporting.
  Task       54 on host ravc2226 reporting.
  Task       55 on host ravc2226 reporting.
  Task       56 on host ravc2226 reporting.
  Task       57 on host ravc2226 reporting.
  Task       58 on host ravc2226 reporting.
  Task       59 on host ravc2226 reporting.
  Task       60 on host ravc2226 reporting.
  Task       61 on host ravc2226 reporting.
  Task       62 on host ravc2226 reporting.
  Task       63 on host ravc2226 reporting.
  Task       64 on host ravc2226 reporting.
  Task       65 on host ravc2226 reporting.
  Task       66 on host ravc2226 reporting.
  Task       67 on host ravc2226 reporting.
  Task       68 on host ravc2226 reporting.
  Task       69 on host ravc2226 reporting.
  Task       70 on host ravc2226 reporting.
  Task       71 on host ravc2226 reporting.
  Task       72 on host ravc2227 reporting.
  Task       73 on host ravc2227 reporting.
  Task       74 on host ravc2227 reporting.
  Task       75 on host ravc2227 reporting.
  Task       76 on host ravc2227 reporting.
  Task       77 on host ravc2227 reporting.
  Task       78 on host ravc2227 reporting.
  Task       79 on host ravc2227 reporting.
  Task       80 on host ravc2227 reporting.
  Task       81 on host ravc2227 reporting.
  Task       82 on host ravc2227 reporting.
  Task       83 on host ravc2227 reporting.
  Task       84 on host ravc2227 reporting.
  Task       85 on host ravc2227 reporting.
  Task       86 on host ravc2227 reporting.
  Task       87 on host ravc2227 reporting.
  Task       88 on host ravc2227 reporting.
  Task       89 on host ravc2227 reporting.
  Task       90 on host ravc2227 reporting.
  Task       91 on host ravc2227 reporting.
  Task       92 on host ravc2227 reporting.
  Task       93 on host ravc2227 reporting.
  Task       94 on host ravc2227 reporting.
  Task       95 on host ravc2227 reporting.
  Task       96 on host ravc2227 reporting.
  Task       97 on host ravc2227 reporting.
  Task       98 on host ravc2227 reporting.
  Task       99 on host ravc2227 reporting.
  Task      100 on host ravc2227 reporting.
  Task      101 on host ravc2227 reporting.
  Task      102 on host ravc2227 reporting.
  Task      103 on host ravc2227 reporting.
  Task      104 on host ravc2227 reporting.
  Task      105 on host ravc2227 reporting.
  Task      106 on host ravc2227 reporting.
  Task      107 on host ravc2227 reporting.
  Task      108 on host ravc2227 reporting.
  Task      109 on host ravc2227 reporting.
  Task      110 on host ravc2227 reporting.
  Task      111 on host ravc2227 reporting.
  Task      112 on host ravc2227 reporting.
  Task      113 on host ravc2227 reporting.
  Task      114 on host ravc2227 reporting.
  Task      115 on host ravc2227 reporting.
  Task      116 on host ravc2227 reporting.
  Task      117 on host ravc2227 reporting.
  Task      118 on host ravc2227 reporting.
  Task      119 on host ravc2227 reporting.
  Task      120 on host ravc2227 reporting.
  Task      121 on host ravc2227 reporting.
  Task      122 on host ravc2227 reporting.
  Task      123 on host ravc2227 reporting.
  Task      124 on host ravc2227 reporting.
  Task      125 on host ravc2227 reporting.
  Task      126 on host ravc2227 reporting.
  Task      127 on host ravc2227 reporting.
  Task      128 on host ravc2227 reporting.
  Task      129 on host ravc2227 reporting.
  Task      130 on host ravc2227 reporting.
  Task      131 on host ravc2227 reporting.
  Task      132 on host ravc2227 reporting.
  Task      133 on host ravc2227 reporting.
  Task      134 on host ravc2227 reporting.
  Task      135 on host ravc2227 reporting.
  Task      136 on host ravc2227 reporting.
  Task      137 on host ravc2227 reporting.
  Task      138 on host ravc2227 reporting.
  Task      139 on host ravc2227 reporting.
  Task      140 on host ravc2227 reporting.
  Task      141 on host ravc2227 reporting.
  Task      142 on host ravc2227 reporting.
  Task      143 on host ravc2227 reporting.

  Obtaining array dimensions for all initial allocations:
  
  -----------------------------------------------------------------------
  Parsing control.in (first pass over file, find array dimensions only).
  The contents of control.in will be repeated verbatim below
  unless switched off by setting 'verbatim_writeout .false.' .
  in the first line of control.in .
  -----------------------------------------------------------------------
  
  #===============================================================================
  # FHI-aims file: control.in
  # Created using the Atomic Simulation Environment (ASE)
  # Wed May 31 22:26:34 2023
  #===============================================================================
  xc                                 hse06 0.11
  hse_unit                           bohr
  hybrid_xc_coeff                    0.25
  relativistic                       atomic_zora scalar
  k_grid                             1 1 1
  compute_forces                     .true.
  charge_mix_param                   0.3
  use_local_index                    .true.
  load_balancing                     .true.
  #===============================================================================
  
  ################################################################################
  #
  #  FHI-aims code project
  #  VB, Fritz-Haber Institut, 2009
  #
  #  Suggested "light" defaults for O atom (to be pasted into control.in file)
  #  Be sure to double-check any results obtained with these settings for post-processing,
  #  e.g., with the "tight" defaults and larger basis sets.
  #
  ################################################################################
    species        O
  #     global species definitions
      nucleus             8
      mass                15.9994
  #
      l_hartree           4
  #
      cut_pot             3.5  1.5  1.0
      basis_dep_cutoff    1e-4
  #
      radial_base         36 5.0
      radial_multiplier   1
       angular_grids specified
        division   0.2659   50
        division   0.4451  110
        division   0.6052  194
        division   0.7543  302
  #      division   0.8014  434
  #      division   0.8507  590
  #      division   0.8762  770
  #      division   0.9023  974
  #      division   1.2339 1202
  #      outer_grid 974
        outer_grid 302
  ################################################################################
  #
  #  Definition of "minimal" basis
  #
  ################################################################################
  #     valence basis states
      valence      2  s   2.
      valence      2  p   4.
  #     ion occupancy
      ion_occ      2  s   1.
      ion_occ      2  p   3.
  ################################################################################
  #
  #  Suggested additional basis functions. For production calculations,
  #  uncomment them one after another (the most important basis functions are
  #  listed first).
  #
  #  Constructed for dimers: 1.0 A, 1.208 A, 1.5 A, 2.0 A, 3.0 A
  #
  ################################################################################
  #  "First tier" - improvements: -699.05 meV to -159.38 meV
       hydro 2 p 1.8
       hydro 3 d 7.6
       hydro 3 s 6.4
  #  "Second tier" - improvements: -49.91 meV to -5.39 meV
  #     hydro 4 f 11.6
  #     hydro 3 p 6.2
  #     hydro 3 d 5.6
  #     hydro 5 g 17.6
  #     hydro 1 s 0.75
  #  "Third tier" - improvements: -2.83 meV to -0.50 meV
  #     ionic 2 p auto
  #     hydro 4 f 10.8
  #     hydro 4 d 4.7
  #     hydro 2 s 6.8
  #  "Fourth tier" - improvements: -0.40 meV to -0.12 meV
  #     hydro 3 p 5
  #     hydro 3 s 3.3
  #     hydro 5 g 15.6
  #     hydro 4 f 17.6
  #     hydro 4 d 14
  # Further basis functions - -0.08 meV and below
  #     hydro 3 s 2.1
  #     hydro 4 d 11.6
  #     hydro 3 p 16
  #     hydro 2 s 17.2
  ################################################################################
  #
  #  FHI-aims code project
  #  VB, Fritz-Haber Institut, 2009
  #
  #  Suggested "light" defaults for H atom (to be pasted into control.in file)
  #  Be sure to double-check any results obtained with these settings for post-processing,
  #  e.g., with the "tight" defaults and larger basis sets.
  #
  ################################################################################
    species        H
  #     global species definitions
      nucleus             1
      mass                1.00794
  #
      l_hartree           4
  #
      cut_pot             3.5  1.5  1.0
      basis_dep_cutoff    1e-4
  #
      radial_base         24 5.0
      radial_multiplier   1
      angular_grids       specified
        division   0.2421   50
        division   0.3822  110
        division   0.4799  194
        division   0.5341  302
  #      division   0.5626  434
  #      division   0.5922  590
  #      division   0.6542  770
  #      division   0.6868 1202
  #      outer_grid  770
        outer_grid  302
  ################################################################################
  #
  #  Definition of "minimal" basis
  #
  ################################################################################
  #     valence basis states
      valence      1  s   1.
  #     ion occupancy
      ion_occ      1  s   0.5
  ################################################################################
  #
  #  Suggested additional basis functions. For production calculations,
  #  uncomment them one after another (the most important basis functions are
  #  listed first).
  #
  #  Basis constructed for dimers: 0.5 A, 0.7 A, 1.0 A, 1.5 A, 2.5 A
  #
  ################################################################################
  #  "First tier" - improvements: -1014.90 meV to -62.69 meV
       hydro 2 s 2.1
       hydro 2 p 3.5
  #  "Second tier" - improvements: -12.89 meV to -1.83 meV
  #     hydro 1 s 0.85
  #     hydro 2 p 3.7
  #     hydro 2 s 1.2
  #     hydro 3 d 7
  #  "Third tier" - improvements: -0.25 meV to -0.12 meV
  #     hydro 4 f 11.2
  #     hydro 3 p 4.8
  #     hydro 4 d 9
  #     hydro 3 s 3.2
  
  -----------------------------------------------------------------------
  Completed first pass over input file control.in .
  -----------------------------------------------------------------------
  
  
  -----------------------------------------------------------------------
  Parsing geometry.in (first pass over file, find array dimensions only).
  The contents of geometry.in will be repeated verbatim below
  unless switched off by setting 'verbatim_writeout .false.' .
  in the first line of geometry.in .
  -----------------------------------------------------------------------
  
  #=======================================================
  # FHI-aims file: geometry-20.in
  # Created using the Atomic Simulation Environment (ASE)
  # Tue Apr 18 15:48:51 2023
  #=======================================================
  lattice_vector 11.6830046400000001 0.0000000000000000 0.0000000000000000
  lattice_vector 0.0000000000000000 11.6830046400000001 0.0000000000000000
  lattice_vector 0.0000000000000000 0.0000000000000000 11.6830046400000001
  atom_frac 1.0951308207303767 0.1097813070799225 -0.2792994670932528 O
  atom_frac 1.0381760440694303 0.1311146290874023 -0.3354481189352673 H
  atom_frac 1.1298244729619484 0.1803698633128335 -0.2602064977010914 H
  atom_frac 1.0628151971700321 0.5577480417742948 0.7783342753170387 O
  atom_frac 1.1281938402106122 0.6035144003845915 0.8126100864066763 H
  atom_frac 1.0922377370552856 0.4769032052699759 0.7723852132271343 H
  atom_frac 0.0933884983888871 0.2167962085137030 1.0380191786006172 O
  atom_frac 0.1559026694009770 0.1767697389188061 0.9931416204590329 H
  atom_frac 0.0142535233984123 0.1858919838621240 1.0161032453377508 H
  atom_frac 0.4283483790519149 0.9093265009608008 0.8436745070059306 O
  atom_frac 0.4827072327517282 0.8508092598001399 0.8146877462851029 H
  atom_frac 0.3603366736315873 0.8892718097901912 0.7970784782637902 H
  atom_frac 0.9075843652151455 0.1164369545264513 0.5315054073281614 O
  atom_frac 0.8612723421806328 0.1615038167099453 0.4794599448177571 H
  atom_frac 0.9597625898058362 0.0744442552921900 0.4855242144284554 H
  atom_frac 0.2121321078239339 0.9759272499955115 0.2369624566031158 O
  atom_frac 0.2896899945081251 1.0073362180912393 0.2456072224927234 H
  atom_frac 0.2164040054682372 0.9320611782278638 0.1622591883178436 H
  atom_frac 0.1426229990780865 0.6745513310007554 0.5762782484010038 O
  atom_frac 0.2208329226513086 0.6533402078662531 0.6020276723950698 H
  atom_frac 0.0968809236045977 0.6757123970465186 0.6420709655731165 H
  atom_frac 0.2108709810458485 -0.1034061739446506 0.9972257470574796 O
  atom_frac 0.1273519857131547 -0.1034964024460064 0.9878396692993182 H
  atom_frac 0.2288867181345226 -0.0312540704426186 0.9537611550584817 H
  atom_frac 0.9539744460805075 0.3337793684211017 0.3142879758370103 O
  atom_frac 0.9670280273037707 0.2507367770762094 0.2871876613412010 H
  atom_frac 0.9870732782658554 0.3796361532558631 0.2532175678396375 H
  atom_frac 1.0469315657140748 0.4617433122923077 0.1340917005747248 O
  atom_frac 1.0436797096059358 0.5483589921778889 0.1352497160353777 H
  atom_frac 0.9858374771646072 0.4400654213897496 0.0789217438845424 H
  atom_frac -0.0089366223173904 0.9781230678343719 0.9327870163372630 O
  atom_frac -0.0362710332707700 0.9313871410051927 0.8698779469114376 H
  atom_frac 0.0226518817850953 1.0419482526200554 0.8933882722484308 H
  atom_frac 0.4892562518061279 0.4372006446451261 0.1654159601532094 O
  atom_frac 0.4734482156295711 0.3799650891861667 0.2221002430415880 H
  atom_frac 0.5665679201510614 0.4178330215916100 0.1392235961655837 H
  atom_frac 0.5308769457100891 0.5272904137098759 0.3942775648850551 O
  atom_frac 0.5762298789945529 0.5480351533952657 0.3299598312921667 H
  atom_frac 0.5113771109484041 0.4449619811158442 0.3790803604439894 H
  atom_frac 0.8146025806936595 0.4782872559057719 0.4994832579301278 O
  atom_frac 0.8897575067641161 0.4923170312119298 0.4686201314390645 H
  atom_frac 0.7652934562217207 0.5214119952622051 0.4486355857511669 H
  atom_frac 1.0181238847817491 0.3714748862754881 0.5548867983673077 O
  atom_frac 0.9959919283229867 0.3466480485793936 0.4726853793323496 H
  atom_frac 1.0994419993656699 0.3598165137765451 0.5570497838987420 H
  atom_frac 0.3454163046536289 0.6129285727990603 0.6693055648739348 O
  atom_frac 0.4264493555828974 0.6270176676057538 0.6494010670871393 H
  atom_frac 0.3282837949810144 0.6346478177894485 0.7461304158139923 H
  atom_frac 0.9838684306128976 0.1003595450082779 0.3030848560888699 O
  atom_frac 1.0539149293704295 0.0747082772707005 0.2684467717544277 H
  atom_frac 0.9242117325736166 0.0539450834284698 0.2636194253878170 H
  atom_frac 0.0169386999404633 0.7027536034600086 0.1721735462736237 O
  atom_frac -0.0056838049839206 0.7888751861353365 0.1700369229674465 H
  atom_frac 0.1014227732087933 0.7010763662591509 0.1545574195714776 H
  atom_frac 0.6459281300088571 1.0232101200295338 0.3447489848809989 O
  atom_frac 0.5872324407465098 1.0662323352462522 0.3850412910560994 H
  atom_frac 0.6145264905073254 0.9446130357780975 0.3442588926336334 H
  atom_frac 0.5863936171474464 1.0774802482659975 0.7990474897217880 O
  atom_frac 0.5626363399270207 1.1379912582145477 0.7454773834618627 H
  atom_frac 0.5263638626783941 1.0189137620679742 0.7888205948705331 H
  atom_frac 0.0230053764662375 0.5688099735274948 0.3789932852410474 O
  atom_frac 0.0538168107754856 0.6178848782858996 0.4393165592374532 H
  atom_frac 0.0074713211788984 0.6278601709089110 0.3180733385380218 H
  atom_frac 0.2568657997211923 0.4556851823693190 0.2948272568690857 O
  atom_frac 0.1819033095924543 0.4909324113732441 0.3070396024425442 H
  atom_frac 0.2962265493031594 0.5100974983435426 0.3448922271420068 H
  atom_frac 0.2240905889086423 0.9078796334364890 0.7278693608393535 O
  atom_frac 0.1722469409204994 0.9705413101676214 0.7348691483529189 H
  atom_frac 0.1760829678143482 0.8463961972713896 0.7091541230441556 H
  atom_frac 0.4376869407799876 0.8900700607784745 1.0833735926685379 O
  atom_frac 0.3824575284941426 0.8312433470025566 1.1039646561331846 H
  atom_frac 0.4207119094322297 0.8932514024919535 1.0008675139925307 H
  atom_frac 1.2842537799420064 0.1151141603929039 0.9313936222146361 O
  atom_frac 1.2891971632393360 0.1405459246654892 0.8534623384348839 H
  atom_frac 1.3506252780192340 0.1457217207781576 0.9699918402155150 H
  atom_frac 0.7328930899063651 0.3373180488611019 1.2464143299355910 O
  atom_frac 0.8188837439338721 0.3269028231764873 1.2666447567207333 H
  atom_frac 0.7188327505448975 0.2659638163081308 1.2052325205615941 H
  atom_frac 0.8726624934388455 1.3706805666388917 0.9809656516579112 O
  atom_frac 0.8784741627903693 1.3964498827760459 0.9012291558928971 H
  atom_frac 0.7928452470425450 1.3925015756905494 1.0060444048578243 H
  atom_frac 0.3954480788428413 0.3760307930511958 0.8281591669384117 O
  atom_frac 0.4336161395207663 0.4525018206275402 0.8111793508626047 H
  atom_frac 0.3984732073169835 0.3669520668785766 0.9134811607846798 H
  atom_frac 0.8715005098209052 0.1499594542658677 0.0263761548929762 O
  atom_frac 0.8558244208657610 0.2340674059682647 0.0237465890452646 H
  atom_frac 0.8652206783682318 0.1267413243105585 -0.0526633463701167 H
  atom_frac 0.4900691976443485 0.0567221241812329 0.5184477244203165 O
  atom_frac 0.4239427349915013 0.0033457078212716 0.5027831436348723 H
  atom_frac 0.4528871059320234 0.1206036300949376 0.5597134180372969 H
  atom_frac 0.3253412009258604 0.6714029602576619 0.4197019577662344 O
  atom_frac 0.3990813145821022 0.6368519887877062 0.4315920617489372 H
  atom_frac 0.3197628585380755 0.7505436041665391 0.4601450667574160 H
  atom_frac 0.2655128929230657 0.7103855750929496 0.1812751723772319 O
  atom_frac 0.2944650187179931 0.6415297726013742 0.1490235546118896 H
  atom_frac 0.3052948911608067 0.7085612567213703 0.2588952006099691 H
  atom_frac 0.5910567129587309 0.6643074550726191 0.5886193091505953 O
  atom_frac 0.5859356527654345 0.6513206409203309 0.5070095675319359 H
  atom_frac 0.6312570154042154 0.7407928976051490 0.5919991237801990 H
  atom_frac 0.2194379741340238 0.2436678403989746 0.2179097071727261 O
  atom_frac 0.1624111072851547 0.2285572814768650 0.1638999349057864 H
  atom_frac 0.2185242408668597 0.3246706045988526 0.2455593101604726 H
  atom_frac 0.4623637571370510 0.2974917161378445 0.4171415624807969 O
  atom_frac 0.4565909758981316 0.2295293439171312 0.3674305302681108 H
  atom_frac 0.5128346563765466 0.2802191140788591 0.4858815625703629 H
  atom_frac 0.5190600728889208 0.6583032359387987 0.8502756316631918 O
  atom_frac 0.5993046973573743 0.6673424893889284 0.8280216398167929 H
  atom_frac 0.5249836381131490 0.6345980506261273 0.9308993735022604 H
  atom_frac 0.9152058053107133 0.9165933507666568 1.1447411682274227 O
  atom_frac 0.9557507827883565 0.9474727530365853 1.0758333654141219 H
  atom_frac 0.8355855698778529 0.8998290066586844 1.1166059341734542 H
  atom_frac 0.8865468558095172 0.6632589790703020 0.9357746749983317 O
  atom_frac 0.8829410796159710 0.6743667303721964 1.0186158036140265 H
  atom_frac 0.9519181462894634 0.6314402122842947 0.8983804546361970 H
  atom_frac 0.6464668835396440 0.4104056206212378 0.9724890428529351 O
  atom_frac 0.6501385982501844 0.4574134030301986 0.9032634519265244 H
  atom_frac 0.5760597061613424 0.3638622812358996 0.9653642532491539 H
  atom_frac 0.8222277501380844 1.1164664246850800 0.7861740060046746 O
  atom_frac 0.7461193672863251 1.0987956014369948 0.8054512122491120 H
  atom_frac 0.8425177737496816 1.0703639419251312 0.7162003626491755 H
  atom_frac 0.5198245277766148 0.2216936276077692 0.9864321709282485 O
  atom_frac 0.5467333076399429 0.1728600203654460 0.9265381597931129 H
  atom_frac 0.5706642747682756 0.2009288254463965 1.0512329532037230 H
  atom_frac 0.2822625507405431 0.3917162486036640 0.5763423260953185 O
  atom_frac 0.3014467535125451 0.4662350823135512 0.6187594914795823 H
  atom_frac 0.3328386129957062 0.3828037493615170 0.5129514054528357 H
  atom_frac 1.3044148119074959 0.9085147055115781 0.5122305206924920 O
  atom_frac 1.2796015349352801 0.9167089391826176 0.5944068725457597 H
  atom_frac 1.2554571680800086 0.9589617435947538 0.4627168461006449 H
  atom_frac 0.7215979184957338 0.8109104303154672 0.8448540580225260 O
  atom_frac 0.7777098708744500 0.7521652178338946 0.8507312935553196 H
  atom_frac 0.7322555039231757 0.8475692585190996 0.7709197922564550 H
  atom_frac 0.6673044529407977 0.4830458237325497 0.7276276148085139 O
  atom_frac 0.7479098219377237 0.4517965756795249 0.7244994229498141 H
  atom_frac 0.6644728466015571 0.5543970142598522 0.6803131698490877 H
  atom_frac -0.1340280089112419 0.6713386232122561 0.6674673553840170 O
  atom_frac -0.0831685709233785 0.6217105020340042 0.7120470997262225 H
  atom_frac -0.1717107843243996 0.6166811673884605 0.6133035046025626 H
  atom_frac 0.2891640476143815 0.4946965911673215 1.0306940355713152 O
  atom_frac 0.3459553081201207 0.4741370906448600 1.0895238067798971 H
  atom_frac 0.2161864903616096 0.4610509338974293 1.0544552544147583 H
  atom_frac 0.6680905983103332 0.1182447720058425 0.1408140029635390 O
  atom_frac 0.7411661123845963 0.0921835395248118 0.1058118718679204 H
  atom_frac 0.6550416794150995 0.0737850361754200 0.2132546606606500 H
  atom_frac 0.1422894496085726 0.3361492913008036 0.8250087179628134 O
  atom_frac 0.2246431017423614 0.3568398779648178 0.8168733492859419 H
  atom_frac 0.1207567465281774 0.3371950462565254 0.9062617944830330 H
  atom_frac 0.5267815052412750 0.8118291819834457 0.3295201883956455 O
  atom_frac 0.5186748945774621 0.7548982502158794 0.2698734894964486 H
  atom_frac 0.4538849348603871 0.8052005661105345 0.3720066844037477 H
  atom_frac 0.2475005847468361 0.6819680206854732 0.8814934708439867 O
  atom_frac 0.2718734715832485 0.7555433813471463 0.9109032391859087 H
  atom_frac 0.2682244291225412 0.6288940333759895 0.9448124801908835 H
  atom_frac 0.6864072674030881 0.8649884675557228 0.0820747726759441 O
  atom_frac 0.6165385396953844 0.9051488710185088 0.0928266977047096 H
  atom_frac 0.6891536139970239 0.8620957339618072 -0.0018718121471190 H
  atom_frac 0.8448541513204432 0.8365959067187361 0.3986283266596392 O
  atom_frac 0.9306277687141276 0.8309789184505537 0.4090473022357714 H
  atom_frac 0.8299562525894879 0.9139985867539636 0.3605261206161774 H
  atom_frac 0.7514983602711297 0.2625889053828194 0.4657952956184053 O
  atom_frac 0.7708051702014903 0.3439566210768877 0.4900066572258076 H
  atom_frac 0.7048612256649758 0.2732447746421506 0.3986328289261041 H
  atom_frac 0.8657674503842361 0.3609780728461647 0.7246460607414430 O
  atom_frac 0.8539592499896499 0.2843722306353548 0.7502288769098701 H
  atom_frac 0.9229538755023553 0.3535892895100314 0.6603689203019952 H
  atom_frac 0.9971159011711220 0.8840022389993676 0.6717467767777930 O
  atom_frac 0.9765408609818030 0.9432175728383516 0.6128820796222846 H
  atom_frac 0.9367614553990283 0.8238509515819211 0.6689046149347417 H
  atom_frac 0.4077376091840703 0.1281106116208818 0.2439137428948244 O
  atom_frac 0.4498347259066054 0.0799656405854171 0.1873120124002622 H
  atom_frac 0.3550496261721933 0.1804855766966467 0.2098125392852707 H
  atom_frac 0.3165599333357793 0.1824330020979945 0.6735525006176836 O
  atom_frac 0.2585573953859185 0.1903224357531369 0.6133038504040174 H
  atom_frac 0.3491459702099374 0.2580695611193389 0.6687995828785359 H
  atom_frac 0.5904263417291598 0.2775828864174790 0.6272013712047966 O
  atom_frac 0.6672953927714952 0.2691434992017602 0.5896217909916024 H
  atom_frac 0.5962007047529513 0.3454959528287921 0.6816226591860705 H
  atom_frac 0.7631025814605856 0.6098572627118293 1.2795444297623766 O
  atom_frac 0.8220555187590853 0.6034763981742286 1.2216606318150021 H
  atom_frac 0.7773237262019952 0.6837015661751891 1.3155572246695606 H
  atom_frac 0.7017558575582318 0.8854200960070834 0.5842930119729884 O
  atom_frac 0.6386193004199646 0.9333733689247254 0.5576546069059851 H
  atom_frac 0.7520707815108768 0.8654714366354990 0.5164483303671785 H
  atom_frac 0.5315109803808141 0.6732088441591170 1.1339241674734113 O
  atom_frac 0.5701033240366837 0.5957285359770259 1.1254216886110899 H
  atom_frac 0.5793691630340737 0.7277719030333278 1.0947907977549174 H
  atom_frac 1.0785726273579568 0.8481467298295963 0.4436488403209262 O
  atom_frac 1.1206132791538461 0.7979294040578245 0.4969041371535396 H
  atom_frac 1.1261890417258278 0.8577453924558229 0.3803662659505714 H
  atom_frac 1.2103157223431524 0.1510865495984259 0.4676397594925546 O
  atom_frac 1.1250811837390489 0.1509477094584120 0.4783702782129512 H
  atom_frac 1.2135020122700215 0.2057791359398108 0.4029364059210029 H
  
  -----------------------------------------------------------------------
  Completed first pass over input file geometry.in .
  -----------------------------------------------------------------------
  

  Basic array size parameters:
  | Number of species                 :        2
  | Number of atoms                   :      192
  | Number of lattice vectors         :        3
  | Max. basis fn. angular momentum   :        2
  | Max. atomic/ionic basis occupied n:        2
  | Max. number of basis fn. types    :        2
  | Max. radial fns per species/type  :        3
  | Max. logarithmic grid size        :     1301
  | Max. radial integration grid size :       36
  | Max. angular integration grid size:      302
  | Max. angular grid division number :        8
  | Radial grid for Hartree potential :     1301
  | Number of spin channels           :        1

------------------------------------------------------------
          Reading file control.in.
------------------------------------------------------------

  XC: Using HSE-functional with OMEGA =  0.110000E+00 <units>.
  XC: For the actual units (bohr^-1 or Angstrom^-1), see below.
  hse_unit: Unit for the HSE06 hybrid functional screening parameter set to bohr^(-1).
  hybrid_xc_coeff: Mixing coefficient for hybrid-functional exact exchange modified to         0.25000000 .
  * WARNING: This change modifies the chosen exchange-correlation functional (keyword 'xc')
  * from its literature definition. Be sure to NEVER include such a line in any default control.in files!
  Scalar relativistic treatment of kinetic energy: on-site free-atom approximation to ZORA.
  Found k-point grid:         1         1         1
  Forces will be computed.
  Charge density mixing - mixing parameter:     0.3000
  Storing only matrices local to each thread.
  Using load balancing for integrations.
 
  Reading configuration options for species O                   .
  | Found nuclear charge :   8.0000
  | Found atomic mass :    15.9994000000000      amu
  | Found l_max for Hartree potential  :   4
  | Found cutoff potl. onset [A], width [A], scale factor :    3.50000    1.50000    1.00000
  | Threshold for basis-dependent cutoff potential is   0.100000E-03
  | Found data for basic radial integration grid :    36 points, outermost radius =    5.000 A
  | Found multiplier for basic radial grid :   1
  | Found angular grid specification: user-specified.
  | Specified grid contains     5 separate shells.
  | Check grid settings after all constraints further below.
  | Found free-atom valence shell :  2 s   2.000
  | Found free-atom valence shell :  2 p   4.000
  | No ionic wave fns used. Skipping ion_occ.
  | No ionic wave fns used. Skipping ion_occ.
  | Found hydrogenic basis function :  2 p   1.800
  | Found hydrogenic basis function :  3 d   7.600
  | Found hydrogenic basis function :  3 s   6.400
  Species O                   : Missing cutoff potential type.
  Defaulting to exp(1/x)/(1-x)^2 type cutoff potential.
  Species O : No 'logarithmic' tag. Using default grid for free atom:
  | Default logarithmic grid data [bohr] : 0.1000E-03 0.1000E+03 0.1012E+01
  Species O : On-site basis accuracy parameter (for Gram-Schmidt orthonormalisation) not specified.
  Using default value basis_acc =  0.1000000E-03.
  Species O                   : Using default innermost maximum threshold i_radial=  2 for radial functions.
  Species O                   : Default cutoff onset for free atom density etc. : 0.35000000E+01 AA.
  Species O                   : Basic radial grid will be enhanced according to radial_multiplier =   1, to contain    36 grid points.
 
  Reading configuration options for species H                   .
  | Found nuclear charge :   1.0000
  | Found atomic mass :    1.00794000000000      amu
  | Found l_max for Hartree potential  :   4
  | Found cutoff potl. onset [A], width [A], scale factor :    3.50000    1.50000    1.00000
  | Threshold for basis-dependent cutoff potential is   0.100000E-03
  | Found data for basic radial integration grid :    24 points, outermost radius =    5.000 A
  | Found multiplier for basic radial grid :   1
  | Found angular grid specification: user-specified.
  | Specified grid contains     5 separate shells.
  | Check grid settings after all constraints further below.
  | Found free-atom valence shell :  1 s   1.000
  | No ionic wave fns used. Skipping ion_occ.
  | Found hydrogenic basis function :  2 s   2.100
  | Found hydrogenic basis function :  2 p   3.500
  Species H                   : Missing cutoff potential type.
  Defaulting to exp(1/x)/(1-x)^2 type cutoff potential.
  Species H : No 'logarithmic' tag. Using default grid for free atom:
  | Default logarithmic grid data [bohr] : 0.1000E-03 0.1000E+03 0.1012E+01
  Species H : On-site basis accuracy parameter (for Gram-Schmidt orthonormalisation) not specified.
  Using default value basis_acc =  0.1000000E-03.
  Species H                   : Using default innermost maximum threshold i_radial=  2 for radial functions.
  Species H                   : Default cutoff onset for free atom density etc. : 0.35000000E+01 AA.
  Species H                   : Basic radial grid will be enhanced according to radial_multiplier =   1, to contain    24 grid points.
 
  Finished reading input file 'control.in'.
 
------------------------------------------------------------


------------------------------------------------------------
          Reading geometry description geometry.in.
------------------------------------------------------------
  | The smallest distance between any two atoms is         0.93201835 AA.
  | The first atom of this pair is atom number                    187 .
  | The second atom of this pair is atom number                   189 .
  | Wigner-Seitz cell of the first atom image           0     0     0 .
  | (The Wigner-Seitz cell of the second atom is 0 0 0  by definition.)

  Symmetry information by spglib:
  | Precision set to  0.1E-04
  | Number of Operations  : 1
  | Space group           : 1
  | International         : P1
  | Schoenflies           : C1^1
  Input structure read successfully.
  The structure contains      192 atoms,  and a total of        640.000 electrons.

  Input geometry:
  | Unit cell:
  |       11.68300464        0.00000000        0.00000000
  |        0.00000000       11.68300464        0.00000000
  |        0.00000000        0.00000000       11.68300464
  | Atomic structure:
  |       Atom                x [A]            y [A]            z [A]
  |    1: Species O            12.79441846        1.28257552       -3.26305697
  |    2: Species H            12.12901554        1.53181282       -3.91904193
  |    3: Species H            13.19974456        2.10726195       -3.03999372
  |    4: Species O            12.41687488        6.51617296        9.09328295
  |    5: Species H            13.18069387        7.05086154        9.49372741
  |    6: Species H            12.76061855        5.57166236        9.02378003
  |    7: Species O             1.09105826        2.53283111       12.12718288
  |    8: Species H             1.82141161        2.06520168       11.60287816
  |    9: Species H             0.16652398        2.17177691       11.87113893
  |   10: Species O             5.00439610       10.62366573        9.85665318
  |   11: Species H             5.63947084        9.94000853        9.51800072
  |   12: Species H             4.20981503       10.38936668        9.31227156
  |   13: Species O            10.60331235        1.36033348        6.20958014
  |   14: Species H            10.06224877        1.88684984        5.60153276
  |   15: Species H            11.21291079        0.86973258        5.67238165
  |   16: Species O             2.47834040       11.40176259        2.76843348
  |   17: Species H             3.38444955       11.76871371        2.86943032
  |   18: Species H             2.52824900       10.88927507        1.89567485
  |   19: Species O             1.66626516        7.88078633        6.73266145
  |   20: Species H             2.57999206        7.63297668        7.03349209
  |   21: Species H             1.13186028        7.89435107        7.50131807
  |   22: Species O             2.46360665       -1.20809481       11.65059303
  |   23: Species H             1.48785384       -1.20914895       11.54093544
  |   24: Species H             2.67408459       -0.36514145       11.14279600
  |   25: Species O            11.14528788        3.89954591        3.67182788
  |   26: Species H            11.29779293        2.92935893        3.35521478
  |   27: Species H            11.53198169        4.43529094        2.95834202
  |   28: Species O            12.23130634        5.39454926        1.56659396
  |   29: Species H            12.19331489        6.40648065        1.58012306
  |   30: Species H            11.51754382        5.14128636        0.92204310
  |   31: Species O            -0.10440660       11.42741634       10.89775504
  |   32: Species H            -0.42375465       10.88140029       10.16278809
  |   33: Species H             0.26464204       12.17308627       10.43745933
  |   34: Species O             5.71598306        5.10781716        1.93255543
  |   35: Species H             5.53129770        4.43913390        2.59479817
  |   36: Species H             6.61921564        4.88154513        1.62654992
  |   37: Species O             6.20223782        6.16033635        4.60634662
  |   38: Species H             6.73209635        6.40269724        3.85492224
  |   39: Species H             5.97442116        5.19849289        4.42879761
  |   40: Species O             9.51700573        5.58783223        5.83546522
  |   41: Species H            10.39504108        5.75174216        5.47489117
  |   42: Species H             8.94092700        6.09165876        5.24141163
  |   43: Species O            11.89474607        4.33994282        6.48274504
  |   44: Species H            11.63617832        4.04989076        5.52238548
  |   45: Species H            12.84478598        4.20373800        6.50801521
  |   46: Species O             4.03550029        7.16084736        7.81950002
  |   47: Species H             4.98220980        7.32545032        7.58695568
  |   48: Species H             3.83534110        7.41459340        8.71704511
  |   49: Species O            11.49453944        1.17250103        3.54094178
  |   50: Species H            12.31289301        0.87281715        3.13626488
  |   51: Species H            10.79756996        0.63024066        3.07986697
  |   52: Species O             0.19789491        8.21027361        2.01150434
  |   53: Species H            -0.06640392        9.21643246        1.98654216
  |   54: Species H             1.18492273        8.19067844        1.80569505
  |   55: Species O             7.54638134       11.95416858        4.02770399
  |   56: Species H             6.86063933       12.45679732        4.49843919
  |   57: Species H             7.17951584       11.03591848        4.02197824
  |   58: Species O             6.85083935       12.58820674        9.33527553
  |   59: Species H             6.57328297       13.29515715        8.70941573
  |   60: Species H             6.14951145       11.90397421        9.21579467
  |   61: Species O             0.26877192        6.64540956        4.42778031
  |   62: Species H             0.62874205        7.21875190        5.13253740
  |   63: Species H             0.08728748        7.33529329        3.71605229
  |   64: Species O             3.00096433        5.32377210        3.44446821
  |   65: Species H             2.12517721        5.73556564        3.58714510
  |   66: Species H             3.46081615        5.95947144        4.02937749
  |   67: Species O             2.61805139       10.60676197        8.50370112
  |   68: Species H             2.01236181       11.33883863        8.58547967
  |   69: Species H             2.05717813        9.88845070        8.28505091
  |   70: Species O             5.11349856       10.39869265       12.65705871
  |   71: Species H             4.46825308        9.71141988       12.89762420
  |   72: Species H             4.91517919       10.43586028       11.69313981
  |   73: Species O            15.00394287        1.34487927       10.88147601
  |   74: Species H            15.06169644        1.64199869        9.97100446
  |   75: Species H            15.77936139        1.70246754       11.33241917
  |   76: Species O             8.56239337        3.94088833       14.56186440
  |   77: Species H             9.56702258        3.81920720       14.79821657
  |   78: Species H             8.39812636        3.10725650       14.08073713
  |   79: Species O            10.19531996       16.01366742       11.46062626
  |   80: Species H            10.26321772       16.31473046       10.52906441
  |   81: Species H             9.26281470       16.26860237       11.75362145
  |   82: Species O             4.62002174        4.39316950        9.67538739
  |   83: Species H             5.06593937        5.28658087        9.47701212
  |   84: Species H             4.65536433        4.28710270       10.67220464
  |   85: Species O            10.18174450        1.75197700        0.30815274
  |   86: Species H             9.99860068        2.73461059        0.27743151
  |   87: Species H            10.10837720        1.48071948       -0.61526612
  |   88: Species O             5.72548071        0.66268484        6.05702717
  |   89: Species H             4.95292494        0.03908792        5.87401780
  |   90: Species H             5.29108216        1.40901277        6.53913446
  |   91: Species O             3.80096276        7.84400390        4.90337992
  |   92: Species H             4.66246885        7.44034474        5.04229206
  |   93: Species H             3.73579096        8.76860441        5.37587695
  |   94: Species O             3.10198836        8.29943797        2.11783868
  |   95: Species H             3.44023618        7.49499531        1.74104288
  |   96: Species H             3.56676163        8.27812445        3.02467383
  |   97: Species O             6.90531832        7.76110708        6.87684212
  |   98: Species H             6.84548895        7.60938207        5.92339513
  |   99: Species H             7.37497864        8.65468686        6.91632851
  |  100: Species O             2.56369487        2.84677251        2.54584012
  |  101: Species H             1.89744972        2.67023578        1.91484370
  |  102: Species H             2.55301972        3.79312818        2.86887056
  |  103: Species O             5.40179792        3.47559710        4.87346681
  |  104: Species H             5.33435449        2.68159239        4.29269259
  |  105: Species H             5.99144967        3.27380121        5.67655655
  |  106: Species O             6.06418124        7.69095976        9.93377415
  |  107: Species H             7.00167956        7.79656540        9.67378066
  |  108: Species H             6.13338628        7.41401197       10.87570170
  |  109: Species O            10.69235367       10.70856437       13.37401638
  |  110: Species H            11.16604083       11.06932857       12.56896620
  |  111: Species H             9.76215009       10.51270646       13.04531231
  |  112: Species O            10.35753103        7.74885773       10.93265987
  |  113: Species H            10.31540473        7.87862964       11.90049316
  |  114: Species H            11.12126412        7.37711893       10.49578302
  |  115: Species O             7.55267560        4.79477077       11.36159400
  |  116: Species H             7.59557226        5.34396291       10.55283110
  |  117: Species H             6.73010822        4.25100472       11.27835505
  |  118: Species O             9.60609062       13.04368242        9.18487456
  |  119: Species H             8.71691603       12.83723411        9.41009025
  |  120: Species H             9.84313906       12.50506690        8.36737216
  |  121: Species O             6.07311237        2.59004768       11.52449163
  |  122: Species H             6.38748777        2.01952442       10.82474962
  |  123: Species H             6.66707337        2.34745240       12.28155947
  |  124: Species O             3.29767469        4.57642275        6.73341007
  |  125: Species H             3.52180382        5.44702663        7.22897001
  |  126: Species H             3.88855506        4.47229798        5.99281365
  |  127: Species O            15.23948430       10.61418152        5.98439155
  |  128: Species H            14.94959067       10.70991479        6.94445825
  |  129: Species H            14.66751192       11.20355450        5.40592306
  |  130: Species O             8.43043183        9.47387032        9.87043388
  |  131: Species H             9.08598803        8.78754973        9.93909765
  |  132: Species H             8.55494445        9.90215558        9.00665951
  |  133: Species O             7.79612102        5.64342660        8.50087680
  |  134: Species H             8.73783392        5.27834149        8.46433012
  |  135: Species H             7.76303935        6.47702289        7.94810192
  |  136: Species O            -1.56584985        7.84325225        7.79802421
  |  137: Species H            -0.97165880        7.26344668        8.31884957
  |  138: Species H            -2.00609789        7.20468894        7.16522769
  |  139: Species O             3.37830491        5.77954257       12.04160320
  |  140: Species H             4.04179747        5.53934583       12.72891169
  |  141: Species H             2.52570777        5.38646020       12.31920563
  |  142: Species O             7.80530556        1.38145422        1.64513065
  |  143: Species H             8.65904713        1.07698072        1.23620059
  |  144: Species H             7.65285498        0.86203092        2.49145519
  |  145: Species O             1.66236830        3.92723373        9.63858068
  |  146: Species H             2.62450640        4.16896195        9.54353513
  |  147: Species H             1.41080163        3.93945129       10.58786075
  |  148: Species O             6.15439077        9.48460410        3.84978589
  |  149: Species H             6.05968120        8.81947976        3.15293323
  |  150: Species H             5.30273980        9.40716195        4.34615582
  |  151: Species O             2.89155048        7.96743555       10.29849231
  |  152: Species H             3.17629903        8.82701683       10.64208677
  |  153: Species H             3.13366725        7.34737191       11.03824859
  |  154: Species O             8.01929929       10.10566428        0.95887995
  |  155: Species H             7.20302262       10.57485846        1.08449474
  |  156: Species H             8.05138487       10.07186846       -0.02186839
  |  157: Species O             9.87043497        9.77395386        4.65717659
  |  158: Species H            10.87252854        9.70833056        4.77890153
  |  159: Species H             9.69638275       10.67824973        4.21202834
  |  160: Species O             8.77975883        3.06782740        5.44188860
  |  161: Species H             9.00532038        4.01844680        5.72475005
  |  162: Species H             8.23489697        3.19231997        4.65722919
  |  163: Species O            10.11476514        4.21730850        8.46604329
  |  164: Species H             9.97680988        3.32232209        8.76492745
  |  165: Species H            10.78287441        4.13098531        7.71509316
  |  166: Species O            11.64930970       10.32780226        7.84802071
  |  167: Species H            11.40893141       11.01961528        7.16030418
  |  168: Species H            10.94418843        9.62505449        7.81481572
  |  169: Species O             4.76360038        1.49671687        2.84964539
  |  170: Species H             5.25542119        0.93423895        2.18836711
  |  171: Species H             4.14804643        2.10861383        2.45124087
  |  172: Species O             3.69837117        2.13136561        7.86911699
  |  173: Species H             3.02072725        2.22353790        7.16523173
  |  174: Species H             4.07907399        3.01502788        7.81358863
  |  175: Species O             6.89795369        3.24300215        7.32759653
  |  176: Species H             7.79601517        3.14440475        6.88855412
  |  177: Species H             6.96541560        4.03643082        7.96340069
  |  178: Species O             8.91533100        7.12496523       14.94892351
  |  179: Species H             9.60407844        7.05041756       14.27266683
  |  180: Species H             9.08147670        7.98768857       15.36966116
  |  181: Species O             8.19861694       10.34436709        6.82629797
  |  182: Species H             7.46099225       10.90460540        6.51508136
  |  183: Species H             8.78644643       10.11130681        6.03366824
  |  184: Species O             6.20964525        7.86510205       13.24764131
  |  185: Species H             6.66051978        6.95989925       13.14830681
  |  186: Species H             6.76877262        8.50256252       12.79044597
  |  187: Species O            12.60096901        9.90890218        5.18315146
  |  188: Species H            13.09213014        9.32221293        5.80533334
  |  189: Species H            13.15727180       10.02104340        4.44382085
  |  190: Species O            14.14012420        1.76514486        5.46343748
  |  191: Species H            13.14432869        1.76352279        5.58880218
  |  192: Species H            14.17734964        2.40411860        4.70750790

  Lattice parameters for 3D lattice (in Angstroms) :    11.683005   11.683005   11.683005
  Angle(s) between unit vectors (in degrees)       :    90.000000   90.000000   90.000000


  Quantities derived from the lattice vectors (in Angstrom^-1):
  | Reciprocal lattice vector 1:  0.537806  0.000000  0.000000
  | Reciprocal lattice vector 2:  0.000000  0.537806  0.000000
  | Reciprocal lattice vector 3:  0.000000  0.000000  0.537806
  | Unit cell volume                               :   0.159464E+04  Angstrom^3

  Fractional coordinates:
                         L1                L2                L3
       atom_frac         1.09513082        0.10978131       -0.27929947  O
       atom_frac         1.03817604        0.13111463       -0.33544812  H
       atom_frac         1.12982447        0.18036986       -0.26020650  H
       atom_frac         1.06281520        0.55774804        0.77833428  O
       atom_frac         1.12819384        0.60351440        0.81261009  H
       atom_frac         1.09223774        0.47690321        0.77238521  H
       atom_frac         0.09338850        0.21679621        1.03801918  O
       atom_frac         0.15590267        0.17676974        0.99314162  H
       atom_frac         0.01425352        0.18589198        1.01610325  H
       atom_frac         0.42834838        0.90932650        0.84367451  O
       atom_frac         0.48270723        0.85080926        0.81468775  H
       atom_frac         0.36033667        0.88927181        0.79707848  H
       atom_frac         0.90758437        0.11643695        0.53150541  O
       atom_frac         0.86127234        0.16150382        0.47945994  H
       atom_frac         0.95976259        0.07444426        0.48552421  H
       atom_frac         0.21213211        0.97592725        0.23696246  O
       atom_frac         0.28968999        1.00733622        0.24560722  H
       atom_frac         0.21640401        0.93206118        0.16225919  H
       atom_frac         0.14262300        0.67455133        0.57627825  O
       atom_frac         0.22083292        0.65334021        0.60202767  H
       atom_frac         0.09688092        0.67571240        0.64207097  H
       atom_frac         0.21087098       -0.10340617        0.99722575  O
       atom_frac         0.12735199       -0.10349640        0.98783967  H
       atom_frac         0.22888672       -0.03125407        0.95376116  H
       atom_frac         0.95397445        0.33377937        0.31428798  O
       atom_frac         0.96702803        0.25073678        0.28718766  H
       atom_frac         0.98707328        0.37963615        0.25321757  H
       atom_frac         1.04693157        0.46174331        0.13409170  O
       atom_frac         1.04367971        0.54835899        0.13524972  H
       atom_frac         0.98583748        0.44006542        0.07892174  H
       atom_frac        -0.00893662        0.97812307        0.93278702  O
       atom_frac        -0.03627103        0.93138714        0.86987795  H
       atom_frac         0.02265188        1.04194825        0.89338827  H
       atom_frac         0.48925625        0.43720064        0.16541596  O
       atom_frac         0.47344822        0.37996509        0.22210024  H
       atom_frac         0.56656792        0.41783302        0.13922360  H
       atom_frac         0.53087695        0.52729041        0.39427756  O
       atom_frac         0.57622988        0.54803515        0.32995983  H
       atom_frac         0.51137711        0.44496198        0.37908036  H
       atom_frac         0.81460258        0.47828726        0.49948326  O
       atom_frac         0.88975751        0.49231703        0.46862013  H
       atom_frac         0.76529346        0.52141200        0.44863559  H
       atom_frac         1.01812388        0.37147489        0.55488680  O
       atom_frac         0.99599193        0.34664805        0.47268538  H
       atom_frac         1.09944200        0.35981651        0.55704978  H
       atom_frac         0.34541630        0.61292857        0.66930556  O
       atom_frac         0.42644936        0.62701767        0.64940107  H
       atom_frac         0.32828379        0.63464782        0.74613042  H
       atom_frac         0.98386843        0.10035955        0.30308486  O
       atom_frac         1.05391493        0.07470828        0.26844677  H
       atom_frac         0.92421173        0.05394508        0.26361943  H
       atom_frac         0.01693870        0.70275360        0.17217355  O
       atom_frac        -0.00568380        0.78887519        0.17003692  H
       atom_frac         0.10142277        0.70107637        0.15455742  H
       atom_frac         0.64592813        1.02321012        0.34474898  O
       atom_frac         0.58723244        1.06623234        0.38504129  H
       atom_frac         0.61452649        0.94461304        0.34425889  H
       atom_frac         0.58639362        1.07748025        0.79904749  O
       atom_frac         0.56263634        1.13799126        0.74547738  H
       atom_frac         0.52636386        1.01891376        0.78882059  H
       atom_frac         0.02300538        0.56880997        0.37899329  O
       atom_frac         0.05381681        0.61788488        0.43931656  H
       atom_frac         0.00747132        0.62786017        0.31807334  H
       atom_frac         0.25686580        0.45568518        0.29482726  O
       atom_frac         0.18190331        0.49093241        0.30703960  H
       atom_frac         0.29622655        0.51009750        0.34489223  H
       atom_frac         0.22409059        0.90787963        0.72786936  O
       atom_frac         0.17224694        0.97054131        0.73486915  H
       atom_frac         0.17608297        0.84639620        0.70915412  H
       atom_frac         0.43768694        0.89007006        1.08337359  O
       atom_frac         0.38245753        0.83124335        1.10396466  H
       atom_frac         0.42071191        0.89325140        1.00086751  H
       atom_frac         1.28425378        0.11511416        0.93139362  O
       atom_frac         1.28919716        0.14054592        0.85346234  H
       atom_frac         1.35062528        0.14572172        0.96999184  H
       atom_frac         0.73289309        0.33731805        1.24641433  O
       atom_frac         0.81888374        0.32690282        1.26664476  H
       atom_frac         0.71883275        0.26596382        1.20523252  H
       atom_frac         0.87266249        1.37068057        0.98096565  O
       atom_frac         0.87847416        1.39644988        0.90122916  H
       atom_frac         0.79284525        1.39250158        1.00604440  H
       atom_frac         0.39544808        0.37603079        0.82815917  O
       atom_frac         0.43361614        0.45250182        0.81117935  H
       atom_frac         0.39847321        0.36695207        0.91348116  H
       atom_frac         0.87150051        0.14995945        0.02637615  O
       atom_frac         0.85582442        0.23406741        0.02374659  H
       atom_frac         0.86522068        0.12674132       -0.05266335  H
       atom_frac         0.49006920        0.05672212        0.51844772  O
       atom_frac         0.42394273        0.00334571        0.50278314  H
       atom_frac         0.45288711        0.12060363        0.55971342  H
       atom_frac         0.32534120        0.67140296        0.41970196  O
       atom_frac         0.39908131        0.63685199        0.43159206  H
       atom_frac         0.31976286        0.75054360        0.46014507  H
       atom_frac         0.26551289        0.71038558        0.18127517  O
       atom_frac         0.29446502        0.64152977        0.14902355  H
       atom_frac         0.30529489        0.70856126        0.25889520  H
       atom_frac         0.59105671        0.66430746        0.58861931  O
       atom_frac         0.58593565        0.65132064        0.50700957  H
       atom_frac         0.63125702        0.74079290        0.59199912  H
       atom_frac         0.21943797        0.24366784        0.21790971  O
       atom_frac         0.16241111        0.22855728        0.16389993  H
       atom_frac         0.21852424        0.32467060        0.24555931  H
       atom_frac         0.46236376        0.29749172        0.41714156  O
       atom_frac         0.45659098        0.22952934        0.36743053  H
       atom_frac         0.51283466        0.28021911        0.48588156  H
       atom_frac         0.51906007        0.65830324        0.85027563  O
       atom_frac         0.59930470        0.66734249        0.82802164  H
       atom_frac         0.52498364        0.63459805        0.93089937  H
       atom_frac         0.91520581        0.91659335        1.14474117  O
       atom_frac         0.95575078        0.94747275        1.07583337  H
       atom_frac         0.83558557        0.89982901        1.11660593  H
       atom_frac         0.88654686        0.66325898        0.93577467  O
       atom_frac         0.88294108        0.67436673        1.01861580  H
       atom_frac         0.95191815        0.63144021        0.89838045  H
       atom_frac         0.64646688        0.41040562        0.97248904  O
       atom_frac         0.65013860        0.45741340        0.90326345  H
       atom_frac         0.57605971        0.36386228        0.96536425  H
       atom_frac         0.82222775        1.11646642        0.78617401  O
       atom_frac         0.74611937        1.09879560        0.80545121  H
       atom_frac         0.84251777        1.07036394        0.71620036  H
       atom_frac         0.51982453        0.22169363        0.98643217  O
       atom_frac         0.54673331        0.17286002        0.92653816  H
       atom_frac         0.57066427        0.20092883        1.05123295  H
       atom_frac         0.28226255        0.39171625        0.57634233  O
       atom_frac         0.30144675        0.46623508        0.61875949  H
       atom_frac         0.33283861        0.38280375        0.51295141  H
       atom_frac         1.30441481        0.90851471        0.51223052  O
       atom_frac         1.27960153        0.91670894        0.59440687  H
       atom_frac         1.25545717        0.95896174        0.46271685  H
       atom_frac         0.72159792        0.81091043        0.84485406  O
       atom_frac         0.77770987        0.75216522        0.85073129  H
       atom_frac         0.73225550        0.84756926        0.77091979  H
       atom_frac         0.66730445        0.48304582        0.72762761  O
       atom_frac         0.74790982        0.45179658        0.72449942  H
       atom_frac         0.66447285        0.55439701        0.68031317  H
       atom_frac        -0.13402801        0.67133862        0.66746736  O
       atom_frac        -0.08316857        0.62171050        0.71204710  H
       atom_frac        -0.17171078        0.61668117        0.61330350  H
       atom_frac         0.28916405        0.49469659        1.03069404  O
       atom_frac         0.34595531        0.47413709        1.08952381  H
       atom_frac         0.21618649        0.46105093        1.05445525  H
       atom_frac         0.66809060        0.11824477        0.14081400  O
       atom_frac         0.74116611        0.09218354        0.10581187  H
       atom_frac         0.65504168        0.07378504        0.21325466  H
       atom_frac         0.14228945        0.33614929        0.82500872  O
       atom_frac         0.22464310        0.35683988        0.81687335  H
       atom_frac         0.12075675        0.33719505        0.90626179  H
       atom_frac         0.52678151        0.81182918        0.32952019  O
       atom_frac         0.51867489        0.75489825        0.26987349  H
       atom_frac         0.45388493        0.80520057        0.37200668  H
       atom_frac         0.24750058        0.68196802        0.88149347  O
       atom_frac         0.27187347        0.75554338        0.91090324  H
       atom_frac         0.26822443        0.62889403        0.94481248  H
       atom_frac         0.68640727        0.86498847        0.08207477  O
       atom_frac         0.61653854        0.90514887        0.09282670  H
       atom_frac         0.68915361        0.86209573       -0.00187181  H
       atom_frac         0.84485415        0.83659591        0.39862833  O
       atom_frac         0.93062777        0.83097892        0.40904730  H
       atom_frac         0.82995625        0.91399859        0.36052612  H
       atom_frac         0.75149836        0.26258891        0.46579530  O
       atom_frac         0.77080517        0.34395662        0.49000666  H
       atom_frac         0.70486123        0.27324477        0.39863283  H
       atom_frac         0.86576745        0.36097807        0.72464606  O
       atom_frac         0.85395925        0.28437223        0.75022888  H
       atom_frac         0.92295388        0.35358929        0.66036892  H
       atom_frac         0.99711590        0.88400224        0.67174678  O
       atom_frac         0.97654086        0.94321757        0.61288208  H
       atom_frac         0.93676146        0.82385095        0.66890461  H
       atom_frac         0.40773761        0.12811061        0.24391374  O
       atom_frac         0.44983473        0.07996564        0.18731201  H
       atom_frac         0.35504963        0.18048558        0.20981254  H
       atom_frac         0.31655993        0.18243300        0.67355250  O
       atom_frac         0.25855740        0.19032244        0.61330385  H
       atom_frac         0.34914597        0.25806956        0.66879958  H
       atom_frac         0.59042634        0.27758289        0.62720137  O
       atom_frac         0.66729539        0.26914350        0.58962179  H
       atom_frac         0.59620070        0.34549595        0.68162266  H
       atom_frac         0.76310258        0.60985726        1.27954443  O
       atom_frac         0.82205552        0.60347640        1.22166063  H
       atom_frac         0.77732373        0.68370157        1.31555722  H
       atom_frac         0.70175586        0.88542010        0.58429301  O
       atom_frac         0.63861930        0.93337337        0.55765461  H
       atom_frac         0.75207078        0.86547144        0.51644833  H
       atom_frac         0.53151098        0.67320884        1.13392417  O
       atom_frac         0.57010332        0.59572854        1.12542169  H
       atom_frac         0.57936916        0.72777190        1.09479080  H
       atom_frac         1.07857263        0.84814673        0.44364884  O
       atom_frac         1.12061328        0.79792940        0.49690414  H
       atom_frac         1.12618904        0.85774539        0.38036627  H
       atom_frac         1.21031572        0.15108655        0.46763976  O
       atom_frac         1.12508118        0.15094771        0.47837028  H
       atom_frac         1.21350201        0.20577914        0.40293641  H

 
  Finished reading input file 'geometry.in'.
 

 
  Consistency checks for stacksize environment parameter are next.
 
  | Maximum stacksize for task 0: unlimited
  | Maximum stacksize for task 1: unlimited
  | Maximum stacksize for task 2: unlimited
  | Maximum stacksize for task 3: unlimited
  | Maximum stacksize for task 4: unlimited
  | Maximum stacksize for task 5: unlimited
  | Maximum stacksize for task 6: unlimited
  | Maximum stacksize for task 7: unlimited
  | Maximum stacksize for task 8: unlimited
  | Maximum stacksize for task 9: unlimited
  | Maximum stacksize for task 10: unlimited
  | Maximum stacksize for task 11: unlimited
  | Maximum stacksize for task 12: unlimited
  | Maximum stacksize for task 13: unlimited
  | Maximum stacksize for task 14: unlimited
  | Maximum stacksize for task 15: unlimited
  | Maximum stacksize for task 16: unlimited
  | Maximum stacksize for task 17: unlimited
  | Maximum stacksize for task 18: unlimited
  | Maximum stacksize for task 19: unlimited
  | Maximum stacksize for task 20: unlimited
  | Maximum stacksize for task 21: unlimited
  | Maximum stacksize for task 22: unlimited
  | Maximum stacksize for task 23: unlimited
  | Maximum stacksize for task 24: unlimited
  | Maximum stacksize for task 25: unlimited
  | Maximum stacksize for task 26: unlimited
  | Maximum stacksize for task 27: unlimited
  | Maximum stacksize for task 28: unlimited
  | Maximum stacksize for task 29: unlimited
  | Maximum stacksize for task 30: unlimited
  | Maximum stacksize for task 31: unlimited
  | Maximum stacksize for task 32: unlimited
  | Maximum stacksize for task 33: unlimited
  | Maximum stacksize for task 34: unlimited
  | Maximum stacksize for task 35: unlimited
  | Maximum stacksize for task 36: unlimited
  | Maximum stacksize for task 37: unlimited
  | Maximum stacksize for task 38: unlimited
  | Maximum stacksize for task 39: unlimited
  | Maximum stacksize for task 40: unlimited
  | Maximum stacksize for task 41: unlimited
  | Maximum stacksize for task 42: unlimited
  | Maximum stacksize for task 43: unlimited
  | Maximum stacksize for task 44: unlimited
  | Maximum stacksize for task 45: unlimited
  | Maximum stacksize for task 46: unlimited
  | Maximum stacksize for task 47: unlimited
  | Maximum stacksize for task 48: unlimited
  | Maximum stacksize for task 49: unlimited
  | Maximum stacksize for task 50: unlimited
  | Maximum stacksize for task 51: unlimited
  | Maximum stacksize for task 52: unlimited
  | Maximum stacksize for task 53: unlimited
  | Maximum stacksize for task 54: unlimited
  | Maximum stacksize for task 55: unlimited
  | Maximum stacksize for task 56: unlimited
  | Maximum stacksize for task 57: unlimited
  | Maximum stacksize for task 58: unlimited
  | Maximum stacksize for task 59: unlimited
  | Maximum stacksize for task 60: unlimited
  | Maximum stacksize for task 61: unlimited
  | Maximum stacksize for task 62: unlimited
  | Maximum stacksize for task 63: unlimited
  | Maximum stacksize for task 64: unlimited
  | Maximum stacksize for task 65: unlimited
  | Maximum stacksize for task 66: unlimited
  | Maximum stacksize for task 67: unlimited
  | Maximum stacksize for task 68: unlimited
  | Maximum stacksize for task 69: unlimited
  | Maximum stacksize for task 70: unlimited
  | Maximum stacksize for task 71: unlimited
  | Maximum stacksize for task 72: unlimited
  | Maximum stacksize for task 73: unlimited
  | Maximum stacksize for task 74: unlimited
  | Maximum stacksize for task 75: unlimited
  | Maximum stacksize for task 76: unlimited
  | Maximum stacksize for task 77: unlimited
  | Maximum stacksize for task 78: unlimited
  | Maximum stacksize for task 79: unlimited
  | Maximum stacksize for task 80: unlimited
  | Maximum stacksize for task 81: unlimited
  | Maximum stacksize for task 82: unlimited
  | Maximum stacksize for task 83: unlimited
  | Maximum stacksize for task 84: unlimited
  | Maximum stacksize for task 85: unlimited
  | Maximum stacksize for task 86: unlimited
  | Maximum stacksize for task 87: unlimited
  | Maximum stacksize for task 88: unlimited
  | Maximum stacksize for task 89: unlimited
  | Maximum stacksize for task 90: unlimited
  | Maximum stacksize for task 91: unlimited
  | Maximum stacksize for task 92: unlimited
  | Maximum stacksize for task 93: unlimited
  | Maximum stacksize for task 94: unlimited
  | Maximum stacksize for task 95: unlimited
  | Maximum stacksize for task 96: unlimited
  | Maximum stacksize for task 97: unlimited
  | Maximum stacksize for task 98: unlimited
  | Maximum stacksize for task 99: unlimited
  | Maximum stacksize for task 100: unlimited
  | Maximum stacksize for task 101: unlimited
  | Maximum stacksize for task 102: unlimited
  | Maximum stacksize for task 103: unlimited
  | Maximum stacksize for task 104: unlimited
  | Maximum stacksize for task 105: unlimited
  | Maximum stacksize for task 106: unlimited
  | Maximum stacksize for task 107: unlimited
  | Maximum stacksize for task 108: unlimited
  | Maximum stacksize for task 109: unlimited
  | Maximum stacksize for task 110: unlimited
  | Maximum stacksize for task 111: unlimited
  | Maximum stacksize for task 112: unlimited
  | Maximum stacksize for task 113: unlimited
  | Maximum stacksize for task 114: unlimited
  | Maximum stacksize for task 115: unlimited
  | Maximum stacksize for task 116: unlimited
  | Maximum stacksize for task 117: unlimited
  | Maximum stacksize for task 118: unlimited
  | Maximum stacksize for task 119: unlimited
  | Maximum stacksize for task 120: unlimited
  | Maximum stacksize for task 121: unlimited
  | Maximum stacksize for task 122: unlimited
  | Maximum stacksize for task 123: unlimited
  | Maximum stacksize for task 124: unlimited
  | Maximum stacksize for task 125: unlimited
  | Maximum stacksize for task 126: unlimited
  | Maximum stacksize for task 127: unlimited
  | Maximum stacksize for task 128: unlimited
  | Maximum stacksize for task 129: unlimited
  | Maximum stacksize for task 130: unlimited
  | Maximum stacksize for task 131: unlimited
  | Maximum stacksize for task 132: unlimited
  | Maximum stacksize for task 133: unlimited
  | Maximum stacksize for task 134: unlimited
  | Maximum stacksize for task 135: unlimited
  | Maximum stacksize for task 136: unlimited
  | Maximum stacksize for task 137: unlimited
  | Maximum stacksize for task 138: unlimited
  | Maximum stacksize for task 139: unlimited
  | Maximum stacksize for task 140: unlimited
  | Maximum stacksize for task 141: unlimited
  | Maximum stacksize for task 142: unlimited
  | Maximum stacksize for task 143: unlimited
  | Current stacksize for task 0: unlimited
  | Current stacksize for task 1: unlimited
  | Current stacksize for task 2: unlimited
  | Current stacksize for task 3: unlimited
  | Current stacksize for task 4: unlimited
  | Current stacksize for task 5: unlimited
  | Current stacksize for task 6: unlimited
  | Current stacksize for task 7: unlimited
  | Current stacksize for task 8: unlimited
  | Current stacksize for task 9: unlimited
  | Current stacksize for task 10: unlimited
  | Current stacksize for task 11: unlimited
  | Current stacksize for task 12: unlimited
  | Current stacksize for task 13: unlimited
  | Current stacksize for task 14: unlimited
  | Current stacksize for task 15: unlimited
  | Current stacksize for task 16: unlimited
  | Current stacksize for task 17: unlimited
  | Current stacksize for task 18: unlimited
  | Current stacksize for task 19: unlimited
  | Current stacksize for task 20: unlimited
  | Current stacksize for task 21: unlimited
  | Current stacksize for task 22: unlimited
  | Current stacksize for task 23: unlimited
  | Current stacksize for task 24: unlimited
  | Current stacksize for task 25: unlimited
  | Current stacksize for task 26: unlimited
  | Current stacksize for task 27: unlimited
  | Current stacksize for task 28: unlimited
  | Current stacksize for task 29: unlimited
  | Current stacksize for task 30: unlimited
  | Current stacksize for task 31: unlimited
  | Current stacksize for task 32: unlimited
  | Current stacksize for task 33: unlimited
  | Current stacksize for task 34: unlimited
  | Current stacksize for task 35: unlimited
  | Current stacksize for task 36: unlimited
  | Current stacksize for task 37: unlimited
  | Current stacksize for task 38: unlimited
  | Current stacksize for task 39: unlimited
  | Current stacksize for task 40: unlimited
  | Current stacksize for task 41: unlimited
  | Current stacksize for task 42: unlimited
  | Current stacksize for task 43: unlimited
  | Current stacksize for task 44: unlimited
  | Current stacksize for task 45: unlimited
  | Current stacksize for task 46: unlimited
  | Current stacksize for task 47: unlimited
  | Current stacksize for task 48: unlimited
  | Current stacksize for task 49: unlimited
  | Current stacksize for task 50: unlimited
  | Current stacksize for task 51: unlimited
  | Current stacksize for task 52: unlimited
  | Current stacksize for task 53: unlimited
  | Current stacksize for task 54: unlimited
  | Current stacksize for task 55: unlimited
  | Current stacksize for task 56: unlimited
  | Current stacksize for task 57: unlimited
  | Current stacksize for task 58: unlimited
  | Current stacksize for task 59: unlimited
  | Current stacksize for task 60: unlimited
  | Current stacksize for task 61: unlimited
  | Current stacksize for task 62: unlimited
  | Current stacksize for task 63: unlimited
  | Current stacksize for task 64: unlimited
  | Current stacksize for task 65: unlimited
  | Current stacksize for task 66: unlimited
  | Current stacksize for task 67: unlimited
  | Current stacksize for task 68: unlimited
  | Current stacksize for task 69: unlimited
  | Current stacksize for task 70: unlimited
  | Current stacksize for task 71: unlimited
  | Current stacksize for task 72: unlimited
  | Current stacksize for task 73: unlimited
  | Current stacksize for task 74: unlimited
  | Current stacksize for task 75: unlimited
  | Current stacksize for task 76: unlimited
  | Current stacksize for task 77: unlimited
  | Current stacksize for task 78: unlimited
  | Current stacksize for task 79: unlimited
  | Current stacksize for task 80: unlimited
  | Current stacksize for task 81: unlimited
  | Current stacksize for task 82: unlimited
  | Current stacksize for task 83: unlimited
  | Current stacksize for task 84: unlimited
  | Current stacksize for task 85: unlimited
  | Current stacksize for task 86: unlimited
  | Current stacksize for task 87: unlimited
  | Current stacksize for task 88: unlimited
  | Current stacksize for task 89: unlimited
  | Current stacksize for task 90: unlimited
  | Current stacksize for task 91: unlimited
  | Current stacksize for task 92: unlimited
  | Current stacksize for task 93: unlimited
  | Current stacksize for task 94: unlimited
  | Current stacksize for task 95: unlimited
  | Current stacksize for task 96: unlimited
  | Current stacksize for task 97: unlimited
  | Current stacksize for task 98: unlimited
  | Current stacksize for task 99: unlimited
  | Current stacksize for task 100: unlimited
  | Current stacksize for task 101: unlimited
  | Current stacksize for task 102: unlimited
  | Current stacksize for task 103: unlimited
  | Current stacksize for task 104: unlimited
  | Current stacksize for task 105: unlimited
  | Current stacksize for task 106: unlimited
  | Current stacksize for task 107: unlimited
  | Current stacksize for task 108: unlimited
  | Current stacksize for task 109: unlimited
  | Current stacksize for task 110: unlimited
  | Current stacksize for task 111: unlimited
  | Current stacksize for task 112: unlimited
  | Current stacksize for task 113: unlimited
  | Current stacksize for task 114: unlimited
  | Current stacksize for task 115: unlimited
  | Current stacksize for task 116: unlimited
  | Current stacksize for task 117: unlimited
  | Current stacksize for task 118: unlimited
  | Current stacksize for task 119: unlimited
  | Current stacksize for task 120: unlimited
  | Current stacksize for task 121: unlimited
  | Current stacksize for task 122: unlimited
  | Current stacksize for task 123: unlimited
  | Current stacksize for task 124: unlimited
[...]
  |   84         -0.429011858288309E-01          0.402800520475708E+00         -0.181980922757513E+01
  |   85         -0.137787897642174E+00          0.936475033001206E+00          0.227059158891812E+00
  |   86          0.274150070349554E+00         -0.926985237323925E+00         -0.336450190347753E+00
  |   87         -0.211344091738988E+00         -0.160470643930684E+00         -0.334943246260154E+00
  |   88         -0.134456596501822E+01         -0.187113270447693E+00          0.700176238658464E-01
  |   89          0.103949134347553E+01          0.876209727650311E+00          0.478967291693228E+00
  |   90          0.374403692754508E+00         -0.920186622442551E+00         -0.303140370365397E+00
  |   91         -0.451907212478139E+00          0.246549952360281E+01          0.390141768778104E+00
  |   92          0.504856930410370E+00          0.370209678439966E-01          0.196721177576086E+00
  |   93          0.270272597825793E+00         -0.226820807559512E+01         -0.823229361540931E+00
  |   94          0.892519647913107E+00          0.473500974169609E+00          0.187470709572337E+01
  |   95          0.192463160483965E+00         -0.724601068988660E+00         -0.595488662889228E+00
  |   96         -0.132331725193901E+01          0.734572733279797E-01         -0.138657385473482E+01
  |   97          0.679568022961844E+00          0.149448792901244E+01         -0.108846828281459E+00
  |   98         -0.993467735341654E-01         -0.483657088483466E+00          0.136790288059449E+00
  |   99         -0.626809961912880E+00         -0.867161338922479E+00          0.157317850825726E+00
  |  100          0.194007238446294E+01          0.145473502238429E+01          0.256881040968768E+01
  |  101         -0.163101152344064E+01          0.129095590616788E-01         -0.153748053706445E+01
  |  102         -0.156034315733938E-01         -0.126217279257210E+01         -0.769423610172557E+00
  |  103          0.859141283061114E+00         -0.263361331291599E+00          0.590975309062949E+00
  |  104          0.569685275340864E-01          0.325215497537788E+00          0.604911778135125E+00
  |  105         -0.902786058333882E+00          0.268305735946959E+00         -0.116355365472377E+01
  |  106          0.725230786299378E+00         -0.413540783100168E+00          0.936223264557294E+00
  |  107         -0.659599414469272E+00          0.831103728402159E-01          0.105987835899354E+00
  |  108         -0.289480810006412E+00          0.472836553158216E+00         -0.904305589353290E+00
  |  109         -0.289012615593225E+00         -0.487781766612200E-01         -0.108555899532701E+01
  |  110         -0.935690032435507E+00         -0.229156129257238E+00          0.885611003835914E+00
  |  111          0.100622081247538E+01          0.221914680645112E+00          0.525986873727380E+00
  |  112         -0.188634355912689E+01          0.791869014620128E+00          0.187481704792397E+00
  |  113          0.126392098723473E+01         -0.458865769439897E+00         -0.106696537362020E+01
  |  114          0.797976136946479E+00         -0.456330632846724E+00          0.771652712059830E+00
  |  115         -0.664565347565702E+00          0.790566178385426E+00         -0.278514866241847E+00
  |  116         -0.684463971975802E-01         -0.353554059437694E+00          0.937214815621659E-01
  |  117          0.936570258341688E+00         -0.202089846875852E+00         -0.533154053493657E-01
  |  118          0.229575523352184E+01         -0.395804153542838E+00         -0.146137827234686E+01
  |  119         -0.178072686750082E+01         -0.577101552591650E+00         -0.133089604503412E+00
  |  120         -0.756747111431661E+00          0.115489386725348E+01          0.146715601630394E+01
  |  121         -0.153579892726450E+00          0.306045411190646E+00          0.139438319742368E+01
  |  122          0.255054613692168E+00         -0.638547524000322E+00         -0.879320453249233E+00
  |  123         -0.491246620571247E+00         -0.176432013976867E+00         -0.514977431509574E+00
  |  124         -0.287912255155508E+00          0.187874224083657E+01          0.175277027404385E+01
  |  125         -0.238481536966413E+00         -0.178721153937305E+01         -0.146935805637518E+01
  |  126          0.524590689449186E+00          0.371852021983833E-01         -0.455676281468568E+00
  |  127         -0.461066045544189E+00          0.548210927399884E+00         -0.635426875858440E+00
  |  128          0.355954421170583E-02          0.165566521952578E+00         -0.104809773050482E+01
  |  129          0.782209608294504E+00         -0.813397817869142E+00          0.135025259460605E+01
  |  130         -0.805670261356596E+00          0.913732346455223E+00         -0.290205081435820E+00
  |  131          0.926337320923318E+00         -0.663809945101595E+00          0.907978979825039E-01
  |  132         -0.918405391371477E-01         -0.229498727116036E+00          0.195977488642164E+00
  |  133          0.109894018590797E+01          0.561006074731830E+00         -0.129755734043844E-01
  |  134         -0.117344754836079E+01          0.340248730790587E+00         -0.275775045303258E+00
  |  135         -0.177796000227319E+00         -0.129379928555144E+01          0.533477097731259E+00
  |  136         -0.272187107154301E+00         -0.118062502176894E+01         -0.388275714743536E+00
  |  137         -0.227745675901247E+00          0.224176296098950E+00         -0.457570929602328E+00
  |  138          0.879762235169759E+00          0.900511061837444E+00          0.782915417622896E+00
  |  139         -0.698253389584379E-01         -0.121196339211750E+00          0.507810132401888E+00
  |  140         -0.391752326796897E+00         -0.542062208993376E-02         -0.405003651234381E+00
  |  141          0.479000703978739E+00          0.219094127850282E+00          0.181957516811172E+00
  |  142          0.590408507449317E+00         -0.419141572145537E+00          0.879518735414300E-01
  |  143         -0.902654567008293E+00          0.540158919699235E+00          0.421962970031883E+00
  |  144          0.323178512416172E+00          0.434460821495363E+00         -0.443008850461341E+00
  |  145          0.781216986763601E+00          0.530604763053275E+00         -0.117457080377918E+00
  |  146         -0.883563248769088E+00         -0.361925214613998E+00          0.538172646771049E+00
  |  147          0.450124244889672E+00         -0.251256378305198E+00         -0.590904650546958E+00
  |  148         -0.119258843831105E+01         -0.107831402845150E+00          0.115889155801074E+01
  |  149          0.326623299524120E+00         -0.905516175211242E-01         -0.477742993695214E+00
  |  150          0.122339190462638E+01          0.323774383799664E+00         -0.655367470876449E+00
  |  151          0.533987525087084E+00         -0.913951494656143E+00          0.765848979807629E+00
  |  152         -0.516722655559033E+00          0.329482616300464E+00         -0.342275398791238E-01
  |  153         -0.217196004905147E+00          0.222535599267296E+00         -0.830577985790789E+00
  |  154          0.712820941315959E+00         -0.556058205487441E+00         -0.113731227977632E+01
  |  155         -0.977420467001395E+00          0.513745353505949E+00          0.562549910086527E+00
  |  156          0.372108113874481E+00         -0.170399742112532E+00          0.153331215172167E+00
  |  157          0.413237404608139E+00          0.187283136292104E+01         -0.885603247014161E+00
  |  158         -0.110459282120852E+01          0.340347739250198E+00         -0.374852746346084E-01
  |  159          0.545959582424025E+00         -0.233705208892670E+01          0.108209622469048E+01
  |  160          0.132045421720346E+00          0.917928359504498E+00          0.109551115345514E+01
  |  161          0.129962736331854E+00         -0.106798337722190E+01         -0.811368880074738E+00
  |  162          0.156479987539899E+00          0.208393348655229E+00         -0.415321064510871E+00
  |  163          0.796050273710402E+00          0.401375355597042E+00         -0.504810265582328E+00
  |  164         -0.313005240993990E+00         -0.890361912600755E+00          0.154441754533810E+00
  |  165         -0.560099765042920E+00          0.422219382180752E+00          0.728621146053767E+00
  |  166         -0.146674650454404E+01          0.479248980168659E+00         -0.621779276471084E+00
  |  167          0.255887757599537E+00         -0.169128712700266E+01          0.127661114857495E+01
  |  168          0.730199205527267E+00          0.754970212153552E+00         -0.397862162379775E+00
  |  169          0.201125979029788E+01         -0.176520244435591E+01          0.264762567292075E-01
  |  170         -0.975987423888029E+00          0.120188655662345E+01          0.780445166812292E+00
  |  171         -0.100281322742283E+01          0.324800859203465E+00         -0.714356885523952E+00
  |  172         -0.109336465633666E+00          0.106281895787521E+00         -0.114784621324904E+00
  |  173          0.563935449407330E+00         -0.561885525430610E+00          0.152552755304118E+00
  |  174          0.134078461707953E+00          0.208162951307848E+00          0.325121928663587E+00
  |  175          0.524120436384217E+00          0.883559873293776E+00          0.998680511887557E+00
  |  176         -0.120674080568158E+01          0.273530110081502E-01          0.417442299844123E+00
  |  177          0.137046915568683E+00         -0.122722930446364E+01         -0.159108233211347E+01
  |  178          0.975354406706116E-01          0.430279312562328E+00          0.478722510879823E-01
  |  179         -0.260976058378840E+00         -0.614719911948499E-01          0.463218597576846E+00
  |  180          0.691905835431356E-01         -0.972271651053884E-01         -0.281689672867385E+00
  |  181          0.153743777285035E+00         -0.659065228024407E+00         -0.822665365482286E+00
  |  182          0.621122052787956E+00         -0.177452132914217E-01          0.515958991814109E-01
  |  183         -0.808525381649666E+00          0.591251598875799E+00          0.103516629503089E+01
  |  184          0.717490311911511E+00         -0.240187979160475E+01         -0.495627136187375E+00
  |  185         -0.101100903626474E+01          0.221152600706549E+01          0.500552491844801E+00
  |  186          0.352397372910830E+00          0.295884193630777E+00          0.154229028054067E+00
  |  187         -0.102818082268913E+01         -0.208010820626969E+00          0.120489343226658E+01
  |  188         -0.518369496191790E+00         -0.850952712398434E-02         -0.172937572752113E+00
  |  189          0.100462140491204E+01          0.363106077594022E+00         -0.163280304588013E+01
  |  190         -0.249195434264329E+01          0.924278294575349E+00         -0.670412162004059E+00
  |  191          0.175426582920678E+01         -0.234606068744379E+00         -0.973321410140420E-01
  |  192          0.457846560847765E+00         -0.861739256294979E+00          0.421878267443873E+00

  ------------------------------------ 
  Start decomposition of the XC Energy 
  ------------------------------------ 
  X and C from original XC functional choice 
  Hartree-Fock Energy :       -133.008666081 Ha          -3619.349954552 eV
  X Energy            :       -572.080557900 Ha         -15567.104025987 eV
  C Energy            :        -21.330292883 Ha           -580.426801143 eV
  XC Energy w/o HF    :       -460.402184702 Ha         -12528.180872578 eV
  Total XC Energy     :       -593.410850783 Ha         -16147.530827130 eV
  ------------------------------------ 
  LDA X and C from self-consistent density 
  X Energy LDA        :       -520.475393328 Ha         -14162.856050627 eV
  C Energy LDA        :        -42.433849390 Ha          -1154.683791560 eV
  ------------------------------------ 
  End decomposition of the XC Energy 
  ------------------------------------ 

------------------------------------------------------------

------------------------------------------------------------------------------
  Final output of selected total energy values:

  The following output summarizes some interesting total energy values
  at the end of a run (AFTER all relaxation, molecular dynamics, etc.).

  | Total energy of the DFT / Hartree-Fock s.c.f. calculation      :        -133208.742738351 eV
  | Final zero-broadening corrected energy (caution - metals only) :        -133208.742738351 eV
  | For reference only, the value of 1 Hartree used in FHI-aims is :             27.211384500 eV
  | For reference only, the overall average (free atom contribution
  | + realspace contribution) of the electrostatic potential after
  | s.c.f. convergence is                                          :             -5.969155846 eV

  Before relying on these values, please be sure to understand exactly which
  total energy value is referred to by a given number. Different objects may
  all carry the same name 'total energy'. Definitions:

  Total energy of the DFT / Hartree-Fock s.c.f. calculation:
  | Note that this energy does not include ANY quantities calculated after the
  | s.c.f. cycle, in particular not ANY RPA, MP2, etc. many-body perturbation terms.

  Final zero-broadening corrected energy:
  | For metallic systems only, a broadening of the occupation numbers at the Fermi
  | level can be extrapolated back to zero broadening by an electron-gas inspired
  | formula. For all systems that are not real metals, this value can be
  | meaningless and should be avoided.

------------------------------------------------------------------------------
  Methods described in the following list of references were used in this FHI-aims run.
  If you publish the results, please make sure to cite these reference if they apply.
  FHI-aims is an academic code, and for our developers (often, Ph.D. students
  and postdocs), scientific credit in the community is essential.
  Thank you for helping us!

  For any use of FHI-aims, please cite:

    Volker Blum, Ralf Gehrke, Felix Hanke, Paula Havu, Ville Havu,
    Xinguo Ren, Karsten Reuter, and Matthias Scheffler
    'Ab initio molecular simulations with numeric atom-centered orbitals'
    Computer Physics Communications 180, 2175-2196 (2009)
    http://doi.org/10.1016/j.cpc.2009.06.022


  For Hartree-Fock, hybrid functionals, or many-body perturbation theory used in your run, please cite:

    Xinguo Ren, Patrick Rinke, Volker Blum, Juergen Wieferink, Alex Tkatchenko,
    Andrea Sanfilippo, Karsten Reuter, and Matthias Scheffler,
    'Resolution-of-identity approach to Hartree-Fock, hybrid density functionals,
    RPA, MP2, and GW with numeric atom-centered orbital basis functions'
    New Journal of Physics 14, 053020 (2012).
    http://doi.org/10.1088/1367-2630/14/5/053020


  The provided symmetry information was generated with SPGlib:

    Atsushi Togo, Yusuke Seto, Dimitar Pashov
    SPGlib 1.7.3 obtained from http://spglib.sourceforge.net
    Copyright (C) 2008 Atsushi Togo


  The ELSI infrastructure was used in your run to solve the Kohn-Sham electronic structure.
  Please check out http://elsi-interchange.org to learn more.
  If scalability is important for your project, please acknowledge ELSI by citing:

    V. W-z. Yu, F. Corsetti, A. Garcia, W. P. Huhn, M. Jacquelin, W. Jia,
    B. Lange, L. Lin, J. Lu, W. Mi, A. Seifitokaldani, A. Vazquez-Mayagoitia,
    C. Yang, H. Yang, and V. Blum
    'ELSI: A unified software interface for Kohn-Sham electronic structure solvers'
    Computer Physics Communications 222, 267-285 (2018).
    http://doi.org/10.1016/j.cpc.2017.09.007


  For the real-space grid partitioning and parallelization used in this calculation, please cite:

    Ville Havu, Volker Blum, Paula Havu, and Matthias Scheffler,
    'Efficient O(N) integration for all-electron electronic structure calculation'
    'using numerically tabulated basis functions'
    Journal of Computational Physics 228, 8367-8379 (2009).
    http://doi.org/10.1016/j.jcp.2009.08.008


  The high-level electronic structure method used in your calculation
  employed our efficient localized resolution of identity for the Coulomb operator.
  Some calculations, especially large-scale hybrid density functional theory,
  are only possible thanks to this development. For this feature, please cite:

    Arvid Ihrig, Juergen Wieferink, Igor Ying Zhang, Matti Ropo, Xinguo Ren,
    Patrick Rinke, Matthias Scheffler, and Volker Blum,
    'Accurate localized resolution of identity approach for linear-scaling
    hybrid density functionals and for many-body perturbation theory'
    New Journal of Physics 117, 093020 (2015).
    http://doi.org/10.1088/1367-2630/17/9/093020

  Of course, there are many other important community references, e.g., those cited in the
  above references. Our list is limited to references that describe implementations in the
  FHI-aims code. The reason is purely practical (length of this list) - please credit others as well.

------------------------------------------------------------
          Leaving FHI-aims.
          Date     :  20230531, Time     :  231824.168

          Computational steps:
          | Number of self-consistency cycles          :           12
          | Number of SCF (re)initializations          :            1

          Detailed time accounting                     :  max(cpu_time)    wall_clock(cpu1)
          | Total time                                  :       54.354 s          55.812 s
          | Preparation time                            :        0.094 s           0.114 s
          | Boundary condition initalization            :        0.050 s           0.052 s
          | Grid partitioning                           :        0.306 s           0.305 s
          | Preloading free-atom quantities on grid     :        1.168 s           1.169 s
          | Free-atom superposition energy              :        0.105 s           0.105 s
          | Total time for integrations                 :        3.867 s           3.871 s
          | Product basis setup: Total time             :       15.205 s          16.125 s
          | Total time evaluating exchange matrix       :       16.181 s          16.181 s
          | Total time for solution of K.-S. equations  :        1.173 s           1.177 s
          | Total time for density & force components   :        9.283 s           9.286 s
          | Total time for mixing                       :        0.042 s           0.041 s
          | Total time for Hartree multipole update     :        0.090 s           0.089 s
          | Total time for Hartree multipole sum        :        5.164 s           5.168 s
          | Total time for total energy evaluation      :        0.003 s           0.007 s
          | Total time NSC force correction             :        1.151 s           1.151 s
          | Total time for scaled ZORA corrections      :        0.000 s           0.000 s

          Partial memory accounting:
          | Residual value for overall tracked memory usage across tasks:     0.000000 MB (should be 0.000000 MB)
          | Peak values for overall tracked memory usage:
          |   Minimum:      396.601 MB (on task  86 after allocating d_wave)
          |   Maximum:      434.192 MB (on task  12 after allocating d_wave)
          |   Average:      411.657 MB
          | Largest tracked array allocation:
          |   Minimum:       91.615 MB (ovlp3fn2 on task   5)
          |   Maximum:      101.360 MB (ovlp3fn2 on task   3)
          |   Average:       95.732 MB
          Note:  These values currently only include a subset of arrays which are explicitly tracked.
          The "true" memory usage will be greater.

          Have a nice day.
------------------------------------------------------------
